# vtk DataFile Version 3.0
vtk output
ASCII
DATASET UNSTRUCTURED_GRID

POINTS      441 float
    6.690000     0.000000     1.302000
    6.690000     0.512500     1.319900
    6.690000     1.025000     1.337800
    6.690000     1.537500     1.355700
    6.690000     2.050000     1.373600
    6.690000     2.562500     1.391500
    6.690000     3.075000     1.409400
    6.690000     3.587500     1.427300
    6.690000     4.100000     1.445200
    6.690000     4.612500     1.463100
    6.690000     5.125000     1.481000
    6.690000     5.637500     1.498900
    6.690000     6.150000     1.516800
    6.690000     6.662500     1.534700
    6.690000     7.175000     1.552600
    6.690000     7.687500     1.570500
    6.690000     8.200000     1.588300
    6.690000     8.712500     1.606200
    6.690000     9.225000     1.624100
    6.690000     9.737500     1.642000
    6.690000    10.250000     1.659900
    6.796100     0.000000     1.298300
    6.796100     0.512500     1.316200
    6.796100     1.025000     1.334100
    6.796100     1.537500     1.352000
    6.796100     2.050000     1.369900
    6.796100     2.562500     1.387800
    6.796100     3.075000     1.405700
    6.796100     3.587500     1.423600
    6.796100     4.100000     1.441500
    6.796100     4.612500     1.459400
    6.796100     5.125000     1.477300
    6.796100     5.637500     1.495200
    6.796100     6.150000     1.513100
    6.790800     6.662500     1.531400
    6.785500     7.175000     1.549800
    6.780200     7.687500     1.568100
    6.774900     8.200000     1.586500
    6.769600     8.712500     1.604900
    6.764300     9.225000     1.623200
    6.759000     9.737500     1.641600
    6.753700    10.250000     1.659900
    6.902200     0.000000     1.294600
    6.902200     0.512500     1.312500
    6.902200     1.025000     1.330400
    6.902200     1.537500     1.348300
    6.902200     2.050000     1.366200
    6.902200     2.562500     1.384100
    6.902200     3.075000     1.402000
    6.902200     3.587500     1.419900
    6.902200     4.100000     1.437800
    6.902200     4.612500     1.455700
    6.902200     5.125000     1.473600
    6.902200     5.637500     1.491500
    6.902200     6.150000     1.509400
    6.891600     6.662500     1.528200
    6.881000     7.175000     1.547000
    6.870400     7.687500     1.565800
    6.859800     8.200000     1.584600
    6.849200     8.712500     1.603500
    6.838500     9.225000     1.622300
    6.827900     9.737500     1.641100
    6.817300    10.250000     1.659900
    7.008300     0.000000     1.290900
    7.008300     0.512500     1.308800
    7.008300     1.025000     1.326700
    7.008300     1.537500     1.344600
    7.008300     2.050000     1.362500
    7.008300     2.562500     1.380400
    7.008300     3.075000     1.398300
    7.008300     3.587500     1.416200
    7.008300     4.100000     1.434100
    7.008300     4.612500     1.452000
    7.008300     5.125000     1.469900
    7.008300     5.637500     1.487700
    7.008300     6.150000     1.505600
    6.992400     6.662500     1.524900
    6.976500     7.175000     1.544200
    6.960600     7.687500     1.563500
    6.944600     8.200000     1.582800
    6.928700     8.712500     1.602100
    6.912800     9.225000     1.621400
    6.896900     9.737500     1.640700
    6.881000    10.250000     1.659900
    7.114400     0.000000     1.287200
    7.114400     0.512500     1.305100
    7.114400     1.025000     1.323000
    7.114400     1.537500     1.340900
    7.114400     2.050000     1.358800
    7.114400     2.562500     1.376700
    7.114400     3.075000     1.394600
    7.114400     3.587500     1.412500
    7.114400     4.100000     1.430400
    7.114400     4.612500     1.448300
    7.114400     5.125000     1.466100
    7.114400     5.637500     1.484000
    7.114400     6.150000     1.501900
    7.093200     6.662500     1.521700
    7.072000     7.175000     1.541400
    7.050700     7.687500     1.561200
    7.029500     8.200000     1.580900
    7.008300     8.712500     1.600700
    6.987100     9.225000     1.620400
    6.965900     9.737500     1.640200
    6.944700    10.250000     1.659900
    7.220500     0.000000     1.283500
    7.220500     0.512500     1.301400
    7.220500     1.025000     1.319300
    7.220500     1.537500     1.337200
    7.220500     2.050000     1.355100
    7.220500     2.562500     1.373000
    7.220500     3.075000     1.390900
    7.220500     3.587500     1.408800
    7.220500     4.100000     1.426600
    7.220500     4.612500     1.444500
    7.220500     5.125000     1.462400
    7.220500     5.637500     1.480300
    7.220500     6.150000     1.498200
    7.194000     6.662500     1.518400
    7.167400     7.175000     1.538700
    7.140900     7.687500     1.558900
    7.114400     8.200000     1.579100
    7.087900     8.712500     1.599300
    7.061400     9.225000     1.619500
    7.034900     9.737500     1.639700
    7.008300    10.250000     1.659900
    7.326600     0.000000     1.279800
    7.326600     0.512500     1.297700
    7.326600     1.025000     1.315600
    7.326600     1.537500     1.333500
    7.326600     2.050000     1.351400
    7.326600     2.562500     1.369300
    7.326600     3.075000     1.387200
    7.326600     3.587500     1.405000
    7.326600     4.100000     1.422900
    7.326600     4.612500     1.440800
    7.326600     5.125000     1.458700
    7.326600     5.637500     1.476600
    7.326600     6.150000     1.494500
    7.294800     6.662500     1.515200
    7.262900     7.175000     1.535900
    7.231100     7.687500     1.556600
    7.199300     8.200000     1.577200
    7.167500     8.712500     1.597900
    7.135600     9.225000     1.618600
    7.103800     9.737500     1.639300
    7.072000    10.250000     1.659900
    7.432700     0.000000     1.276100
    7.432700     0.512500     1.294000
    7.432700     1.025000     1.311900
    7.432700     1.537500     1.329800
    7.432700     2.050000     1.347700
    7.432700     2.562500     1.365500
    7.432700     3.075000     1.383400
    7.432700     3.587500     1.401300
    7.432700     4.100000     1.419200
    7.432700     4.612500     1.437100
    7.432700     5.125000     1.455000
    7.432700     5.637500     1.472900
    7.432700     6.150000     1.490800
    7.395500     6.662500     1.512000
    7.358400     7.175000     1.533100
    7.321300     7.687500     1.554200
    7.284200     8.200000     1.575400
    7.247000     8.712500     1.596500
    7.209900     9.225000     1.617700
    7.172800     9.737500     1.638800
    7.135700    10.250000     1.659900
    7.538800     0.000000     1.272400
    7.538800     0.512500     1.290300
    7.538800     1.025000     1.308200
    7.538800     1.537500     1.326100
    7.538800     2.050000     1.343900
    7.538800     2.562500     1.361800
    7.538800     3.075000     1.379700
    7.538800     3.587500     1.397600
    7.538800     4.100000     1.415500
    7.538800     4.612500     1.433400
    7.538800     5.125000     1.451300
    7.538800     5.637500     1.469200
    7.538800     6.150000     1.487100
    7.496300     6.662500     1.508700
    7.453900     7.175000     1.530300
    7.411500     7.687500     1.551900
    7.369000     8.200000     1.573500
    7.326600     8.712500     1.595100
    7.284200     9.225000     1.616700
    7.241800     9.737500     1.638300
    7.199300    10.250000     1.659900
    7.644900     0.000000     1.268700
    7.644900     0.512500     1.286600
    7.644900     1.025000     1.304400
    7.644900     1.537500     1.322300
    7.644900     2.050000     1.340200
    7.644900     2.562500     1.358100
    7.644900     3.075000     1.376000
    7.644900     3.587500     1.393900
    7.644900     4.100000     1.411800
    7.644900     4.612500     1.429700
    7.644900     5.125000     1.447600
    7.644900     5.637500     1.465500
    7.644900     6.150000     1.483400
    7.597100     6.662500     1.505500
    7.549400     7.175000     1.527500
    7.501700     7.687500     1.549600
    7.453900     8.200000     1.571700
    7.406200     8.712500     1.593700
    7.358500     9.225000     1.615800
    7.310700     9.737500     1.637900
    7.263000    10.250000     1.659900
    7.751000     0.000000     1.265000
    7.751000     0.512500     1.282800
    7.751000     1.025000     1.300700
    7.751000     1.537500     1.318600
    7.751000     2.050000     1.336500
    7.751000     2.562500     1.354400
    7.751000     3.075000     1.372300
    7.751000     3.587500     1.390200
    7.751000     4.100000     1.408100
    7.751000     4.612500     1.426000
    7.751000     5.125000     1.443900
    7.751000     5.637500     1.461800
    7.751000     6.150000     1.479700
    7.697900     6.662500     1.502200
    7.644900     7.175000     1.524800
    7.591800     7.687500     1.547300
    7.538800     8.200000     1.569800
    7.485800     8.712500     1.592400
    7.432700     9.225000     1.614900
    7.379700     9.737500     1.637400
    7.326700    10.250000     1.659900
    7.857000     0.000000     1.261200
    7.857000     0.512500     1.279100
    7.857000     1.025000     1.297000
    7.857000     1.537500     1.314900
    7.857000     2.050000     1.332800
    7.857000     2.562500     1.350700
    7.857000     3.075000     1.368600
    7.857000     3.587500     1.386500
    7.857000     4.100000     1.404400
    7.857000     4.612500     1.422300
    7.857000     5.125000     1.440200
    7.857000     5.637500     1.458100
    7.857000     6.150000     1.476000
    7.798700     6.662500     1.499000
    7.740400     7.175000     1.522000
    7.682000     7.687500     1.545000
    7.623700     8.200000     1.568000
    7.565400     8.712500     1.591000
    7.507000     9.225000     1.614000
    7.448700     9.737500     1.636900
    7.390300    10.250000     1.659900
    7.963100     0.000000     1.257500
    7.963100     0.512500     1.275400
[...]
POINT_DATA      441
SCALARS dcp float
LOOKUP_TABLE default

    2.049536 
    2.728152 
    4.223734 
    5.026195 
    5.560470 
    5.756532 
    5.748401 
    5.500321 
    5.640482 
    5.709684 
    5.550862 
    5.184636 
    4.836345 
    5.106235 
    5.730154 
    6.048410 
    5.857087 
    6.069250 
    6.271446 
    5.438334 
    3.787027 
    1.578943 
    1.795917 
    0.722650 
    0.840745 
    0.863144 
    0.855727 
    0.829563 
    0.762774 
    0.726715 
    0.720344 
    0.720521 
    0.748761 
    0.923355 
    1.145080 
    1.236125 
    1.274567 
    1.195024 
    0.915399 
    0.899398 
    1.017925 
    1.668225 
    1.109217 
    0.591755 
    0.229323 
    0.267038 
    0.288381 
    0.297224 
    0.299523 
    0.299097 
    0.298909 
    0.297106 
    0.295863 
    0.296199 
    0.300891 
    0.315088 
    0.330186 
    0.352945 
    0.378273 
    0.399788 
    0.404683 
    0.365346 
    0.413701 
    0.726787 
    0.150265 
    0.060381 
    0.084341 
    0.099055 
    0.105300 
    0.107340 
    0.107403 
    0.106767 
    0.105695 
    0.104274 
    0.103675 
    0.105808 
    0.116378 
    0.129960 
    0.146117 
    0.163076 
    0.176605 
    0.179422 
    0.146756 
    0.094719 
    0.457996 
    0.040359 
    0.006535 
    0.022224 
    0.031023 
    0.034937 
    0.036320 
    0.036327 
    0.035861 
    0.034757 
    0.033996 
    0.033503 
    0.036834 
    0.047062 
    0.058037 
    0.068354 
    0.078530 
    0.086928 
    0.087813 
    0.061089 
    0.023464 
    0.288341 
    0.010618 
   -0.000704 
    0.009507 
    0.015984 
    0.019176 
    0.020129 
    0.020029 
    0.019578 
    0.018787 
    0.018644 
    0.018905 
    0.021908 
    0.030970 
    0.041934 
    0.051365 
    0.057156 
    0.059575 
    0.057189 
    0.036709 
    0.006433 
    0.055707 
    0.001111 
   -0.001069 
    0.005732 
    0.011396 
    0.014678 
    0.016267 
    0.016865 
    0.016887 
    0.016230 
    0.015860 
    0.015491 
    0.016941 
    0.022647 
    0.030809 
    0.039874 
    0.048276 
    0.054353 
    0.053342 
    0.033735 
   -0.000118 
    0.008319 
    0.000890 
    0.001377 
    0.006029 
    0.009626 
    0.012303 
    0.013685 
    0.014133 
    0.014187 
    0.013924 
    0.013901 
    0.013989 
    0.015349 
    0.019474 
    0.025162 
    0.031421 
    0.037098 
    0.040856 
    0.038925 
    0.022131 
    0.001039 
    0.002764 
    0.001518 
    0.002124 
    0.005640 
    0.009458 
    0.012245 
    0.013661 
    0.014091 
    0.014128 
    0.013904 
    0.013924 
    0.014032 
    0.014994 
    0.018664 
    0.024494 
    0.031012 
    0.036643 
    0.039740 
    0.036660 
    0.021758 
    0.001407 
    0.001837 
    0.002362 
    0.003364 
    0.006176 
    0.009559 
    0.012147 
    0.013511 
    0.013704 
    0.013593 
    0.013690 
    0.013948 
    0.014519 
    0.015279 
    0.018072 
    0.022433 
    0.027229 
    0.031347 
    0.033507 
    0.030638 
    0.017411 
    0.003187 
    0.001733 
    0.002472 
    0.003381 
    0.006097 
    0.009379 
    0.011850 
    0.013173 
    0.013379 
    0.013259 
    0.013432 
    0.013710 
    0.014301 
    0.015026 
    0.017672 
    0.021982 
    0.026513 
    0.029942 
    0.030859 
    0.027181 
    0.016196 
    0.003572 
    0.001334 
    0.002189 
    0.003271 
    0.005969 
    0.009077 
    0.011348 
    0.012648 
    0.012902 
    0.012782 
    0.013085 
    0.013392 
    0.014050 
    0.014806 
    0.017143 
    0.020721 
    0.024478 
    0.027354 
    0.028312 
    0.025151 
    0.014982 
    0.004632 
    0.000616 
    0.001306 
    0.002046 
    0.006273 
    0.008741 
    0.010529 
    0.011634 
    0.012122 
    0.012207 
    0.012501 
    0.012728 
    0.013195 
    0.014052 
    0.016418 
    0.019487 
    0.022399 
    0.024046 
    0.023787 
    0.020481 
    0.012492 
    0.004732 
   -0.000380 
    0.000322 
    0.001826 
    0.006034 
    0.008524 
    0.010242 
    0.011359 
    0.011935 
    0.012074 
    0.012365 
    0.012542 
    0.012887 
    0.013665 
    0.015702 
    0.018441 
    0.021172 
    0.023053 
    0.023123 
    0.020017 
    0.012418 
    0.004800 
   -0.001363 
   -0.000903 
    0.000037 
    0.005508 
    0.007486 
    0.008730 
    0.009737 
    0.010451 
    0.010892 
    0.011070 
    0.011200 
    0.011303 
    0.012040 
    0.013874 
    0.015711 
    0.017377 
    0.018495 
    0.018186 
    0.015087 
    0.009087 
    0.004084 
   -0.002276 
   -0.002028 
   -0.000518 
    0.004953 
    0.007226 
    0.008537 
    0.009594 
    0.010289 
    0.010697 
    0.010815 
    0.010903 
    0.010949 
    0.011583 
    0.013297 
    0.015225 
    0.016993 
    0.018022 
    0.016947 
    0.012634 
    0.007393 
    0.003594 
   -0.002922 
   -0.003023 
   -0.001567 
    0.003137 
    0.005656 
    0.006753 
    0.007894 
    0.008478 
    0.009025 
    0.009165 
    0.009331 
    0.009310 
    0.009777 
    0.010997 
    0.012251 
    0.013416 
    0.014354 
    0.013917 
    0.010341 
    0.006042 
    0.002119 
   -0.003388 
   -0.003837 
   -0.002748 
    0.001878 
    0.004529 
    0.005426 
    0.006574 
    0.006918 
    0.007314 
    0.007607 
    0.007795 
    0.007785 
    0.008253 
    0.009253 
    0.010064 
    0.010881 
    0.011526 
    0.010918 
    0.006877 
    0.003660 
    0.000014 
   -0.003478 
   -0.004199 
   -0.003481 
    0.001331 
    0.004028 
    0.004817 
    0.005772 
    0.005980 
    0.006069 
    0.006578 
    0.006644 
    0.006685 
    0.007039 
    0.007894 
    0.008596 
    0.009358 
    0.009825 
    0.009052 
    0.004500 
    0.000816 
   -0.002628 
   -0.003337 
   -0.003599 
   -0.003523 
    0.000392 
    0.003159 
    0.004011 
    0.004687 
    0.004902 
    0.004793 
    0.005354 
    0.005239 
    0.005293 
    0.005340 
    0.006085 
    0.006855 
    0.007668 
    0.008098 
    0.007174 
    0.002216 
   -0.003278 
   -0.004614 
   -0.003004 
   -0.002724 
   -0.002028 
   -0.001117 
    0.000609 
    0.001328 
    0.001656 
    0.001871 
    0.001871 
    0.002101 
    0.001923 
    0.002028 
    0.002084 
    0.002697 
    0.002814 
    0.003119 
    0.003390 
    0.002947 
   -0.000015 
   -0.002757 
   -0.004885 
